ITEM: TIMESTEP
0
ITEM: NUMBER OF ATOMS
621
ITEM: BOX BOUNDS xy xz yz pp pp pp
0.0000000000000000e+00 1.7500000000000000e+01 0.0000000000000000e+00
0.0000000000000000e+00 1.7500000000000000e+01 0.0000000000000000e+00
0.0000000000000000e+00 1.7500000000000000e+01 0.0000000000000000e+00
ITEM: ATOMS id type x y z
1 2 1.466 9.82 10.898
2 1 1.219 10.509 11.52
3 2 13.241 3.422 13
4 1 13.302 3.663 13.928
5 2 11.722 1.171 1.513
6 1 11.956 0.773 0.672
7 2 5.597 12.432 3.121
8 1 5.603 12.707 4.041
9 2 1.008 14.667 9.565
10 1 1.623 13.956 9.372
11 2 9.373 10.125 11.939
12 1 9.574 10.647 11.16
13 2 9.845 5.663 7.991
14 1 10.007 5.696 7.046
15 2 2.677 13.867 16.399
16 1 2.491 13.251 17.112
17 2 0.28 12.257 4.393
18 1 17.088 12.665 4.92
19 2 7.633 4.021 7.48
20 1 7.993 3.206 7.838
21 2 5.048 11.721 14.626
22 1 5.271 11.109 13.921
23 2 3.282 0.738 9.192
24 1 3.539 1.452 9.78
25 2 3.362 7.768 5.898
26 1 3.144 8.674 6.128
27 2 14.482 6.731 9.074
28 1 13.563 6.957 8.911
29 2 3.911 9.116 14.359
30 1 3.881 9.157 13.4
31 2 6.884 16.261 10.13
32 1 6.735 15.606 9.444
33 2 6.303 5.997 4.992
34 1 6.074 6.887 5.269
35 2 4.925 12.69 5.894
36 1 5.521 13.439 5.816
37 3 5.027 3.511 1.098
38 3 17.376 16.288 10.232
39 3 2.931 1.593 2.196
40 3 15.837 0.658 7.054
41 3 8.216 16.918 12.608
42 3 15.255 0.333 13.738
43 3 13.144 16.345 12.229
44 3 2.347 11.334 3.924
45 3 5.668 7.533 0.722
46 2 0.542 3.849 4.937
47 1 0.538 2.889 4.955
48 1 17.219 4.179 5.294
49 2 3.557 4.401 15.868
50 1 4.297 4.756 15.371
51 1 3.014 5.118 16.19
52 2 12.626 9.803 13.44
53 1 12.739 9.856 14.392
54 1 13.213 10.424 13.013
55 2 9.683 0.732 2.87
56 1 9.274 0.814 3.735
57 1 9.12 0.213 2.299
58 2 2.554 4.731 12.765
59 1 2.333 4.807 13.696
60 1 1.803 4.991 12.236
61 2 12.385 3.664 2.156
62 1 11.967 3.965 2.966
63 1 12.881 2.866 2.329
64 2 8.888 3.2 3.135
65 1 9.058 3.149 2.192
66 1 8.282 3.916 3.314
67 2 8.96 5.699 11.72
68 1 8.988 5.756 12.677
69 1 8.955 4.781 11.453
70 2 13.441 11.537 15.32
71 1 13.074 12.287 14.847
72 1 14.216 11.218 14.862
73 2 14.508 14.722 12.74
74 1 14.341 14.774 13.684
75 1 13.907 14.093 12.344
76 2 16.691 1.644 14.042
77 1 17.103 1.153 14.757
78 1 17.334 2.223 13.639
79 2 13.311 5.607 1.669
80 1 13.251 5.547 2.625
81 1 12.448 5.793 1.305
82 2 0.509 15.99 14.022
83 1 0.605 16.92 13.804
84 1 1.043 15.784 14.786
85 2 15.55 0.869 11.308
86 1 15.438 0.7 10.37
87 1 14.901 1.509 11.597
88 2 1.32 10.124 16.679
89 1 1.08 9.674 15.865
90 1 0.748 10.878 16.809
91 2 9.352 12.425 13.523
92 1 9.235 13.285 13.111
93 1 9.629 12.539 14.43
94 2 15.306 5.518 13.036
95 1 14.4 5.319 13.283
96 1 15.355 6.406 12.687
97 2 4.276 4.338 4.139
98 1 4.205 3.794 4.927
99 1 3.524 4.925 4.087
100 2 4.255 0.82 12.46
101 1 4.537 0.683 13.368
102 1 3.605 0.161 12.224
103 2 12.665 3.875 6.906
104 1 11.895 4.028 6.353
105 1 12.547 4.31 7.748
106 2 8.133 12.234 1.769
107 1 8.205 12.277 2.725
108 1 7.946 13.105 1.422
109 2 7.151 12.418 12.298
110 1 6.705 12.284 13.138
111 1 8.095 12.442 12.438
112 2 5.937 11.961 0.126
113 1 5.795 12.259 1.027
114 1 6.58 11.254 0.12
115 2 15.202 1.613 16.013
116 1 14.797 1.535 15.146
117 1 15.287 2.535 16.245
118 2 6.439 14.939 0.986
119 1 6.157 14.513 1.799
120 1 7.057 14.373 0.527
121 2 6.753 16.956 0.797
122 1 6.649 0.216 0.221
123 1 6.633 17.225 1.706
124 2 15.476 12.432 0.187
125 1 15.861 12.366 16.81
126 1 15.174 11.571 0.47
127 2 6.807 15.877 5.599
128 1 5.971 15.592 5.975
129 1 6.862 15.593 4.689
130 2 14.939 13.362 2.988
131 1 14.722 13.977 3.693
132 1 14.213 13.318 2.369
133 2 4.49 8.133 2.52
134 1 5.116 8.077 3.245
135 1 3.826 8.789 2.72
136 2 9.385 1.94 9.278
137 1 9.204 1.691 8.368
138 1 9.079 2.831 9.433
139 2 10.853 2.91 17.006
140 1 10.574 3.038 16.097
141 1 11.244 3.717 17.337
142 2 1.543 0.05 4.762
143 1 2.491 0.025 4.614
144 1 1.295 0.905 5.109
145 2 9.604 16.342 15.945
146 1 9.087 17.045 16.345
147 1 9.263 15.495 16.227
148 2 12.856 15.108 3.718
149 1 12.891 14.821 4.634
150 1 12.416 15.954 3.665
151 2 4.548 6.948 10.178
152 1 4.99 7.191 10.995
153 1 5.198 6.812 9.491
154 2 0.367 1.005 9.853
155 1 0.281 1.13 10.801
156 1 0.316 1.851 9.413
157 2 16.193 16.645 17.298
158 1 15.955 16.677 16.369
159 1 16.306 15.736 0.069
160 2 5.27 2.117 6.901
161 1 5.279 2.072 7.86
162 1 4.438 1.78 6.573
163 2 6.136 4.905 9.719
164 1 5.536 4.196 9.48
165 1 6.027 5.635 9.113
166 2 1.156 9.795 1.482
167 1 0.74 9.945 2.334
168 1 0.81 10.415 0.843
169 2 2.356 16.29 1.114
170 1 2.403 16.296 0.155
171 1 2.981 15.656 1.461
172 2 14.634 12.578 12.569
173 1 14.955 11.674 12.565
174 1 15.123 13.094 11.931
175 2 14.09 5.343 10.994
176 1 13.677 4.479 11.064
177 1 13.434 5.993 10.75
178 2 9.646 6.096 17.354
179 1 9.962 5.973 16.456
180 1 10.216 6.709 0.313
181 2 2.081 4.677 7.416
182 1 1.286 4.228 7.714
183 1 2.217 5.466 7.937
184 2 6.753 11.814 8.855
185 1 6.683 11.719 9.808
186 1 6.847 10.953 8.453
187 2 1.183 4.624 1.614
188 1 1.665 5.391 1.933
189 1 1.594 4.297 0.817
190 2 11.166 1.187 14.142
191 1 11.952 1.731 14.049
192 1 10.388 1.739 14.094
193 2 6.3 3.393 12.179
194 1 7.202 3.264 11.878
195 1 6.21 3.068 13.072
196 2 13.302 6.503 16.373
197 1 13.385 6.453 17.328
198 1 12.693 7.202 16.141
199 2 7.941 6.828 4.738
200 1 7.948 7.475 4.029
201 1 7.76 5.961 4.379
202 2 7.413 14.97 8.082
203 1 7.69 15.863 7.865
204 1 8.075 14.553 8.629
205 2 16.966 5.608 11.475
206 1 16.908 5.636 10.517
207 1 16.613 4.779 11.793
208 2 11.349 14.971 6.897
209 1 10.726 15.494 7.407
210 1 10.99 14.801 6.029
211 2 11.052 16.402 2.357
212 1 11.477 16.269 1.507
213 1 11.008 17.337 2.55
214 2 16.899 9.367 11.446
215 1 16.527 9.002 12.253
216 1 16.485 10.207 11.255
217 2 10.471 7.802 14.285
218 1 10.625 8.07 15.193
219 1 9.637 7.339 14.224
220 2 14.059 13.41 10.562
221 1 13.976 12.837 9.797
222 1 14.096 14.321 10.277
223 2 3.627 11.442 1.119
224 1 3.618 11.44 0.159
225 1 2.741 11.577 1.447
226 2 10.964 14.867 16.658
227 1 10.479 14.524 17.412
228 1 11.045 14.187 15.992
229 2 16.343 9.603 4.257
230 1 17.181 9.514 3.798
231 1 15.723 10.075 3.705
232 2 2.925 0.293 15.785
233 1 2.279 0.636 15.163
234 1 3.803 0.548 15.507
235 2 3.206 5.258 0.588
236 1 2.885 6.146 0.765
237 1 3.999 5.305 0.056
238 2 12.12 9.605 16.582
239 1 12.129 9.639 0.041
240 1 11.228 9.453 16.275
241 2 1.152 2.603 11.962
242 1 0.534 3.109 11.43
243 1 1.314 1.758 11.548
244 2 15.11 12.886 7.994
245 1 15.541 12.497 8.758
246 1 14.469 13.533 8.282
247 2 11.857 1.749 10.254
248 1 12.349 1.026 9.858
249 1 10.92 1.591 10.155
250 2 9.005 10.58 15.577
251 1 9.201 10.324 16.481
252 1 9.026 9.809 15.014
253 2 17.344 11.368 8.486
254 1 16.771 11.821 7.863
255 1 17.271 11.778 9.346
256 2 7.764 5.734 2.38
257 1 7.849 6.689 2.324
258 1 8.616 5.349 2.577
259 2 13.213 7.68 6.916
260 1 13.085 7.562 5.972
261 1 13.778 6.987 7.252
262 2 2.187 15.454 13.41
263 1 2.921 15.11 12.896
264 1 1.385 14.992 13.172
265 2 15.149 4.275 16.777
266 1 15.161 4.275 0.237
267 1 15.114 5.175 16.458
268 2 14.471 4.285 7.008
269 1 14.556 3.758 7.806
270 1 15.265 4.799 6.878
271 2 1.992 13.67 2.108
272 1 2.24 13.673 3.035
273 1 2.134 14.539 1.737
274 2 12.273 14.93 14.284
275 1 12.685 14.383 13.612
276 1 12.469 15.849 14.113
277 2 3.764 16.21 5.764
278 1 4.388 15.623 5.331
279 1 4.104 16.465 6.619
280 2 13.511 15.585 1.837
281 1 13.051 15.809 1.024
282 1 13.269 16.205 2.522
283 2 3.015 10.026 10.125
284 1 3.8 10.575 10.191
285 1 2.287 10.546 9.792
286 2 5.407 9.244 9.479
287 1 5.307 9.31 10.431
288 1 4.57 9.01 9.084
289 2 6.067 2.493 16.877
290 1 6.043 1.534 16.904
291 1 6.68 2.817 0.035
292 2 7.962 5.885 9.078
293 1 7.58 5.533 9.885
294 1 7.617 5.408 8.326
295 2 13.569 0.674 6.052
296 1 13.266 0.928 5.178
297 1 14.092 17.377 5.991
298 2 5.526 1.426 11.425
299 1 5.219 1.619 10.536
300 1 5.852 0.529 11.463
301 2 8.009 5.016 14.701
302 1 8.007 4.995 15.661
303 1 8.25 5.89 14.4
304 2 10.911 12.959 5.562
305 1 11.371 12.133 5.733
306 1 10.016 12.776 5.285
307 2 17.419 8.263 8.132
308 1 17.472 9.033 8.704
309 1 16.578 8.259 7.68
310 2 9.133 12.802 15.98
311 1 8.896 11.975 16.406
312 1 9.934 13.145 16.371
313 2 9.815 10.368 4.123
314 1 10.529 10.598 3.525
315 1 9.14 9.889 3.647
316 2 16.028 17.246 2.493
317 1 15.126 16.968 2.669
318 1 16.258 17.031 1.591
319 2 3.794 2.743 7.674
320 1 3.297 3.016 6.9
321 1 4.513 3.354 7.826
322 2 2.882 7.146 9.246
323 1 3.165 6.229 9.235
324 1 2.092 7.23 9.776
325 2 5.04 5.076 6.674
326 1 5.908 5.457 6.825
327 1 4.392 5.534 7.206
328 2 16.68 14.177 11.524
329 1 16.845 13.674 10.723
330 1 0.007 14.352 11.969
331 2 0.545 15.104 4.516
332 1 0.601 15.154 3.559
333 1 0.79 14.228 4.805
334 2 9.391 11.794 8.647
335 1 8.899 12.593 8.85
336 1 9.861 11.501 9.425
337 2 2.218 12.134 9.156
338 1 2.934 11.717 8.671
339 1 1.426 12.132 8.621
340 2 14.277 0.315 8.78
341 1 13.394 17.443 8.723
342 1 14.253 1.238 8.534
343 2 7.345 15.923 15.225
344 1 6.551 16.277 14.819
345 1 7.106 15.281 15.89
346 2 6.12 0.3 14.398
347 1 5.472 0.556 15.058
348 1 6.125 0.94 13.689
349 2 11.244 15.013 11.22
350 1 11.25 15.017 12.18
351 1 11.644 14.206 10.901
352 2 7.451 13.859 10.894
353 1 7.635 14.666 10.407
354 1 6.669 13.442 10.537
355 2 17.239 3.171 2.375
356 1 17.434 3.194 3.315
357 1 16.854 2.327 2.148
358 2 7.59 16.294 3.412
359 1 7.547 16.279 2.453
360 1 8.503 16.288 3.692
361 2 11.47 11.191 1.035
362 1 11.455 10.842 1.929
363 1 10.725 11.775 0.907
364 2 17.262 6.234 3.998
365 1 16.368 6.553 4.143
366 1 17.253 5.282 3.919
367 2 5.577 8.916 5.808
368 1 6.349 8.774 5.256
369 1 5.834 8.899 6.728
370 2 9.08 14.079 4.448
371 1 9.053 14.649 5.22
372 1 8.668 13.242 4.653
373 2 14.912 2.987 2.828
374 1 15.009 3.066 3.779
375 1 15.509 2.318 2.499
376 2 7.798 0.179 5.157
377 1 7.557 0.174 6.086
378 1 7.078 17.326 4.638
379 2 15.918 16.576 4.867
380 1 15.674 16.58 3.938
381 1 16.03 15.676 5.165
382 2 14.162 17.405 16.451
383 1 13.961 17.48 17.387
384 1 14.558 16.554 16.275
385 2 16.319 4.329 9.43
386 1 16.118 5.063 8.844
387 1 17.115 3.892 9.134
388 2 4.918 14.458 15.856
389 1 4.676 15.068 15.155
390 1 5.799 14.659 16.165
391 2 0.38 9.052 5.135
392 1 1.193 8.917 4.642
393 1 17.35 8.258 5.101
394 2 2.11 12.192 13.018
395 1 2.849 12.364 12.43
396 1 2.362 12.394 13.917
397 2 1.437 6.932 17.208
398 1 1.516 7.111 0.647
399 1 1.422 5.988 17.061
400 2 0.666 16.018 0.359
401 1 0.687 15.668 1.253
402 1 0.671 16.973 0.389
403 2 0.188 11.936 15.288
404 1 0.164 12.204 14.366
405 1 0.053 10.992 15.349
406 2 1.847 2.852 3.806
407 1 2.791 2.916 3.647
408 1 1.647 2.012 4.215
409 2 0.764 7.675 12.987
410 1 0.773 7.703 12.028
411 1 1.651 7.533 13.311
412 2 2.904 4.351 10.909
413 1 2.806 5.052 10.261
414 1 3.805 4.034 10.904
415 2 3.636 13.163 9.823
416 1 3.636 12.891 10.744
417 1 3.693 14.115 9.77
418 2 10.367 4.932 13.463
419 1 10.04 5.358 14.258
420 1 10.459 3.994 13.616
421 2 2.852 13.942 6.503
422 1 3.054 13.745 5.586
423 1 1.947 13.7 6.691
424 2 1.359 1.669 16.786
425 1 0.469 1.356 16.965
426 1 1.33 2.352 16.119
427 2 4.155 9.194 16.829
428 1 3.862 9.392 0.221
429 1 4.461 9.995 16.407
430 2 1.273 9.533 7.771
431 1 0.529 10.046 7.447
432 1 1.552 9.873 8.619
433 2 9.466 9.247 7.681
434 1 8.596 8.854 7.789
435 1 9.806 9.511 8.534
436 2 10.403 1.015 16.59
437 1 9.823 1.634 17.039
438 1 10.533 1.295 15.686
439 2 17.328 14.444 14.899
440 1 16.905 13.582 14.913
441 1 16.66 15.127 14.903
442 2 10.115 7.145 4.379
443 1 9.988 7.847 3.737
444 1 9.823 7.441 5.239
445 2 8.091 10.203 5.552
446 1 8.039 9.63 4.784
447 1 8.879 9.998 6.052
448 2 1.483 7.72 2.483
449 1 1.365 7.714 3.435
450 1 2.065 7.007 2.227
451 2 6.009 13.821 8.462
452 1 5.792 13.769 7.528
453 1 5.204 13.843 8.976
454 2 4.523 16.596 1.711
455 1 4.673 16.349 2.626
456 1 4.062 17.432 1.677
457 2 13.647 8.956 11.04
458 1 13.687 8.944 11.999
459 1 13.095 8.239 10.734
460 2 15.611 11.273 6.782
461 1 16.227 11.409 6.058
462 1 14.736 11.119 6.432
463 2 11.496 12.919 14.567
464 1 11.322 12.048 14.93
465 1 11.059 13.008 13.723
466 2 9.55 1.616 6.254
467 1 9.585 2.52 6.574
468 1 9.168 1.601 5.378
469 2 8.449 7.76 6.65
470 1 8.024 8.091 5.855
471 1 9.388 7.925 6.603
472 2 16.958 7.73 1.532
473 1 17.089 8.045 2.43
474 1 17.02 8.463 0.924
475 2 11.762 10.68 8.429
476 1 12.467 11.289 8.66
477 1 11.622 10.695 7.484
478 2 15.853 13.569 5.339
479 1 16.299 14.214 5.893
480 1 15.236 13.066 5.867
481 2 16.72 7.438 16.383
482 1 16.577 8.054 17.106
483 1 16.72 7.912 15.554
484 2 16.577 5.018 1.652
485 1 16.079 4.267 1.982
486 1 17.139 5.359 2.345
487 2 5.005 15.397 12.599
488 1 5.143 15.44 11.649
489 1 5.821 15.602 13.05
490 2 13.729 10.147 4.537
491 1 13.224 10.609 3.865
492 1 14.441 9.66 4.125
493 2 3.743 10.208 5.742
494 1 3.71 10.24 4.783
495 1 3.29 10.967 6.103
496 2 10.594 6.692 10.187
497 1 10.77 6.4 9.29
498 1 11.382 6.589 10.717
499 2 7.345 12.03 14.766
500 1 7.036 11.782 15.64
501 1 8.298 11.982 14.738
502 2 8.473 3.296 16.619
503 1 8.439 3.554 0.043
504 1 7.606 3.387 16.229
505 2 9.086 1.457 13.24
506 1 9.216 1.101 12.358
507 1 8.698 2.328 13.179
508 2 11.357 9.093 6.292
509 1 10.902 9.457 5.529
510 1 11.939 8.39 6.012
511 2 14.387 10.039 2.493
512 1 13.536 9.86 2.086
513 1 14.415 10.947 2.789
514 2 4.67 5.382 11.619
515 1 5.408 4.769 11.65
516 1 4.308 5.403 10.735
517 2 6.537 2.47 3.997
518 1 6.248 2.313 4.899
519 1 7.05 3.275 3.96
520 2 11.092 16.812 11.276
521 1 11.812 17.416 11.471
522 1 11.162 16.511 10.372
523 2 3.081 7.13 12.71
524 1 2.939 6.664 13.537
525 1 3.286 6.502 12.02
526 2 13.601 13.36 0.39
527 1 13.732 13.093 16.977
528 1 13.798 14.291 0.482
529 2 13.65 2.834 5.21
530 1 13.576 3.107 4.293
531 1 12.788 2.585 5.54
532 2 0.753 4.483 13.888
533 1 0.82 3.537 13.742
534 1 0.884 4.675 14.814
535 2 8.776 0.124 10.191
536 1 8.724 16.724 9.861
537 1 8.068 0.644 9.815
538 2 5.44 2.839 14.678
539 1 4.933 3.543 15.088
540 1 6.361 3.091 14.636
541 2 9.112 8.428 16.822
542 1 9.591 8.708 0.105
543 1 9.428 8.913 16.062
544 2 1.368 7.123 6.112
545 1 1.251 7.395 7.025
546 1 0.888 6.313 5.954
547 2 6.802 0.591 7.439
548 1 6.767 0.599 8.398
549 1 6.105 0.034 7.098
550 2 2.414 16.425 10.71
551 1 2.985 17.167 10.497
552 1 1.907 16.627 11.494
553 2 10.618 15.044 3.661
554 1 10.714 15.337 4.57
555 1 10.423 14.109 3.644
556 2 15.19 8.166 6.384
557 1 16.148 8.154 6.317
558 1 14.824 7.453 5.864
559 2 11.757 5.021 4.685
560 1 11.702 5.124 3.732
561 1 11.928 5.87 5.089
562 2 11.118 8.421 11.358
563 1 10.158 8.454 11.368
564 1 11.448 8.937 10.625
565 2 5.28 1.066 1.261
566 1 5.878 1.415 1.926
567 1 5.244 1.664 0.517
568 2 6.031 9.679 13.508
569 1 5.925 9.83 12.566
570 1 6.815 9.155 13.662
571 2 10.606 0.507 8.939
572 1 10.215 17.136 9.034
573 1 10.979 0.597 8.065
574 2 0.744 16.358 8.441
575 1 0.153 16.765 7.802
576 1 1.3 17.028 8.834
577 2 13.86 1.843 0.267
578 1 14.329 1.664 1.085
579 1 12.929 1.954 0.45
580 2 2.485 3.153 15.151
581 1 2.544 3.239 16.106
582 1 3.225 2.643 14.83
583 2 7.29 4.588 17.235
584 1 7.43 4.622 0.684
585 1 7.109 5.466 16.906
586 2 10.667 2.698 3.739
587 1 9.908 2.157 3.971
588 1 10.758 3.409 4.37
589 2 14.9 9.043 17.193
590 1 15.102 8.384 16.524
591 1 14.024 9.393 17.043
592 2 7.189 7.679 10.7
593 1 6.996 8.438 10.145
594 1 6.377 7.225 10.915
595 2 6.288 11.401 6.701
596 1 5.63 10.709 6.803
597 1 5.972 12.205 7.109
598 2 12.995 7.116 2.849
599 1 12.75 7.226 1.927
600 1 13.621 7.793 3.096
601 2 5.323 0.142 4.861
602 1 5.465 0.3 5.797
603 1 4.736 0.808 4.51
604 2 13.557 3.306 9.299
605 1 14.404 3.495 9.711
606 1 13.133 2.583 9.757
607 2 12.808 13.208 8.086
608 1 13.255 13.76 7.44
609 1 12.713 12.323 7.741
610 2 10.976 3.755 11.191
611 1 11.509 4.422 10.752
612 1 10.873 2.999 10.617
613 2 5.904 6.223 13.143
614 1 5.854 6.244 12.185
615 1 6.481 5.513 13.418
616 2 7.166 9.602 3.03
617 1 7.555 9.56 2.153
618 1 6.248 9.857 2.96
619 2 10.828 11.996 10.728
620 1 11.238 11.144 10.894
621 1 10.473 12.344 11.544
ITEM: TIMESTEP
1
ITEM: NUMBER OF ATOMS
621
ITEM: BOX BOUNDS xy xz yz pp pp pp
0.0000000000000000e+00 1.7500000000000000e+01 0.0000000000000000e+00
0.0000000000000000e+00 1.7500000000000000e+01 0.0000000000000000e+00
0.0000000000000000e+00 1.7500000000000000e+01 0.0000000000000000e+00
ITEM: ATOMS id type x y z
1 2 1.46626 9.82024 10.8977
2 1 1.21423 10.5062 11.5237
3 2 13.2411 3.4224 12.9997
4 1 13.3055 3.6656 13.9257
5 2 11.7224 1.17035 1.51195
6 1 11.9559 0.769755 0.675396
7 2 5.59658 12.4317 3.11969
8 1 5.59762 12.704 4.03966
9 2 1.00885 14.6673 9.56565
10 1 1.62723 13.9522 9.37403
11 2 9.37424 10.1243 11.9401
12 1 9.57693 10.6499 11.1637
13 2 9.8436 5.66279 7.99106
14 1 10.0032 5.69648 7.04175
15 2 2.67781 13.8665 16.3999
16 1 2.48657 13.2533 17.1097
17 2 0.279743 12.257 4.39229
18 1 17.0902 12.6696 4.91701
19 2 7.63313 4.02039 7.48019
20 1 7.99701 3.20664 7.83658
21 2 5.04828 11.7212 14.6257
22 1 5.27224 11.1099 13.9222
23 2 3.28141 0.739179 9.19169
24 1 3.53354 1.45462 9.78258
25 2 3.36162 7.76932 5.89816
26 1 3.14461 8.67689 6.12691
27 2 14.4831 6.73111 9.07463
28 1 13.5578 6.95967 8.91167
29 2 3.91146 9.11549 14.3579
30 1 3.88116 9.16026 13.4013
31 2 6.88477 16.2614 10.1303
32 1 6.72971 15.6043 9.44379
33 2 6.30269 5.99685 4.99203
34 1 6.07469 6.88404 5.26611
35 2 4.92365 12.6888 5.89291
36 1 5.5207 13.4443 5.81733
37 3 5.02755 3.51109 1.09815
38 3 17.3758 16.287 10.2325
39 3 2.93171 1.59377 2.19525
40 3 15.8375 0.657866 7.05427
41 3 8.21621 16.918 12.6078
42 3 15.2551 0.334066 13.7375
43 3 13.1444 16.3459 12.2296
44 3 2.34642 11.3341 3.92424
45 3 5.66868 7.534 0.721242
46 2 0.540873 3.84901 4.93691
47 1 0.541575 2.88599 4.95832
48 1 17.2219 4.17393 5.29806
49 2 3.55696 4.40043 15.8679
50 1 4.30108 4.7571 15.3756
51 1 3.01167 5.11346 16.189
52 2 12.6262 9.80351 13.4387
53 1 12.7356 9.8568 14.3935
54 1 13.216 10.4202 13.0128
55 2 9.68359 0.733018 2.86993
56 1 9.27374 0.817696 3.73162
57 1 9.11886 0.21656 2.29779
58 2 2.55344 4.72987 12.7657
59 1 2.33158 4.80425 13.6953
60 1 1.80293 4.99658 12.2385
61 2 12.3856 3.6646 2.15586
62 1 11.9661 3.96925 2.96421
63 1 12.8784 2.86839 2.32832
64 2 8.88911 3.19867 3.13378
65 1 9.05527 3.1486 2.19686
66 1 8.28652 3.91101 3.31169
67 2 8.96055 5.69976 11.7193
68 1 8.98898 5.75628 12.6779
69 1 8.95113 4.77652 11.4491
70 2 13.4416 11.5378 15.3196
71 1 13.0696 12.2852 14.8442
72 1 14.2193 11.2205 14.8626
73 2 14.5089 14.722 12.7413
74 1 14.3459 14.7755 13.6799
75 1 13.9111 14.0883 12.3475
76 2 16.6896 1.64482 14.0414
77 1 17.1046 1.15245 14.7552
78 1 17.3391 2.21896 13.6409
79 2 13.3117 5.60729 1.6692
80 1 13.256 5.54423 2.62532
81 1 12.45 5.79516 1.3027
82 2 0.509786 15.991 14.023
83 1 0.602585 16.9209 13.7997
84 1 1.04749 15.7836 14.7894
85 2 15.5495 0.867999 11.3077
86 1 15.4382 0.704191 10.3677
87 1 14.8986 1.5114 11.5943
88 2 1.32125 10.1248 16.679
89 1 1.07614 9.67235 15.8668
90 1 0.750894 10.8802 16.8082
91 2 9.35157 12.4258 13.5226
92 1 9.23727 13.2872 13.1154
93 1 9.63448 12.537 14.4347
94 2 15.3061 5.51758 13.0363
95 1 14.4036 5.32187 13.281
96 1 15.3539 6.40536 12.6919
97 2 4.2752 4.33797 4.14016
98 1 4.2044 3.79664 4.92184
99 1 3.52641 4.91977 4.09033
100 2 4.25548 0.819446 12.4599
101 1 4.53517 0.678206 13.3638
102 1 3.60128 0.156796 12.2253
103 2 12.6637 3.87481 6.90612
104 1 11.8928 4.02746 6.35232
105 1 12.543 4.30834 7.74418
106 2 8.13409 12.2349 1.76814
107 1 8.20193 12.2741 2.72649
108 1 7.94692 13.1009 1.42455
109 2 7.15193 12.4186 12.2973
110 1 6.69963 12.2798 13.1358
111 1 8.09762 12.4445 12.4403
112 2 5.93827 11.9615 0.126397
113 1 5.79233 12.2559 1.03088
114 1 6.57662 11.2496 0.117546
115 2 15.2029 1.61362 16.0135
116 1 14.7965 1.53015 15.1424
117 1 15.2881 2.53108 16.2477
118 2 6.43779 14.94 0.987337
119 1 6.16178 14.5114 1.80317
120 1 7.05295 14.3734 0.531832
121 2 6.7537 16.957 0.795913
122 1 6.6458 0.211673 0.219617
123 1 6.63745 17.2272 1.70673
124 2 15.475 12.4328 0.185962
125 1 15.8628 12.3669 16.8122
126 1 15.174 11.5733 0.472544
127 2 6.80619 15.8773 5.60003
128 1 5.97152 15.5947 5.97002
129 1 6.86697 15.5972 4.69329
130 2 14.9393 13.3613 2.98767
131 1 14.7246 13.9781 3.69323
132 1 14.2135 13.3129 2.37445
133 2 4.49123 8.13418 2.51976
134 1 5.11112 8.07744 3.24409
135 1 3.83023 8.78456 2.72202
136 2 9.38588 1.93939 9.2779
137 1 9.20288 1.68703 8.36533
138 1 9.08431 2.8292 9.43393
139 2 10.8533 2.90945 17.0054
140 1 10.5768 3.03596 16.0973
141 1 11.245 3.71284 17.3402
142 2 1.54394 0.0486936 4.76297
143 1 2.48745 0.0299257 4.61618
144 1 1.29168 0.90281 5.11132
145 2 9.60521 16.3427 15.9454
146 1 9.08358 17.042 16.3482
147 1 9.25796 15.4959 16.2278
148 2 12.8547 15.1093 3.71912
149 1 12.8862 14.8223 4.63204
150 1 12.4201 15.9493 3.66155
151 2 4.54927 6.94828 10.1773
152 1 4.98921 7.18956 10.9904
153 1 5.20184 6.80872 9.48939
154 2 0.367062 1.00467 9.85353
155 1 0.279146 1.12822 10.8037
156 1 0.313924 1.85588 9.41294
157 2 16.1923 16.6439 17.2968
158 1 15.9524 16.6804 16.3739
159 1 16.3055 15.7372 0.0732984
160 2 5.26974 2.11563 6.90058
161 1 5.2831 2.06939 7.85708
162 1 4.43606 1.7797 6.57275
163 2 6.13464 4.90562 9.71782
164 1 5.53936 4.19058 9.47683
165 1 6.02618 5.63867 9.11667
166 2 1.15672 9.79489 1.48153
167 1 0.74395 9.94273 2.33037
168 1 0.805761 10.4121 0.841419
169 2 2.35488 16.289 1.11394
170 1 2.39863 16.299 0.156594
171 1 2.98296 15.6543 1.46622
172 2 14.6342 12.5768 12.5678
173 1 14.9507 11.6711 12.5617
174 1 15.124 13.0988 11.9362
175 2 14.089 5.34333 10.9953
176 1 13.6823 4.48267 11.0636
177 1 13.4294 5.98776 10.7465
178 2 9.6461 6.0949 17.3532
179 1 9.95876 5.9695 16.4572
180 1 10.2187 6.70413 0.309902
181 2 2.07989 4.67792 7.41556
182 1 1.28203 4.23265 7.71856
183 1 2.21373 5.46794 7.93759
184 2 6.75267 11.814 8.85456
185 1 6.68617 11.7181 9.80351
186 1 6.84702 10.9572 8.45617
187 2 1.18425 4.62384 1.6153
188 1 1.66673 5.39083 1.93593
189 1 1.59935 4.29277 0.819607
190 2 11.1648 1.18645 14.1415
191 1 11.9546 1.72614 14.0544
192 1 10.384 1.7442 14.0936
193 2 6.29894 3.3924 12.1803
194 1 7.19743 3.26866 11.8769
195 1 6.20751 3.06881 13.0762
196 2 13.3009 6.50209 16.3743
197 1 13.3898 6.45656 17.3301
198 1 12.6968 7.2055 16.1443
199 2 7.9419 6.82781 4.73833
200 1 7.95115 7.47719 4.02346
201 1 7.76045 5.96023 4.37393
202 2 7.41278 14.9697 8.08134
203 1 7.69481 15.8639 7.86807
204 1 8.07119 14.5481 8.63073
205 2 16.9663 5.60824 11.475
206 1 16.9068 5.63216 10.5117
207 1 16.6131 4.77579 11.7939
208 2 11.3485 14.9706 6.89661
209 1 10.729 15.499 7.40855
210 1 10.9862 14.8057 6.02957
211 2 11.052 16.4018 2.35705
212 1 11.4753 16.2701 1.50815
213 1 11.0036 17.3423 2.54802
214 2 16.8992 9.36762 11.4472
215 1 16.5288 9.002 12.2581
216 1 16.4859 10.2041 11.2522
217 2 10.4723 7.80112 14.2837
218 1 10.6199 8.06463 15.1957
219 1 9.63303 7.33923 14.2258
220 2 14.0599 13.4093 10.5619
221 1 13.9739 12.8364 9.79185
222 1 14.0963 14.3232 10.2804
223 2 3.62706 11.4424 1.11789
224 1 3.62019 11.4365 0.153614
225 1 2.74548 11.5725 1.4466
226 2 10.9652 14.866 16.6573
227 1 10.4826 14.5263 17.4085
228 1 11.0403 14.1861 15.9963
229 2 16.3441 9.60282 4.25669
230 1 17.1816 9.51689 3.79557
231 1 15.7202 10.0716 3.70787
232 2 2.92463 0.292724 15.7851
233 1 2.27712 0.641208 15.1635
234 1 3.80305 0.545425 15.5085
235 2 3.20642 5.25707 0.587793
236 1 2.88043 6.14319 0.768887
237 1 3.99636 5.30772 0.0513037
238 2 12.1207 9.60527 16.5829
239 1 12.1292 9.64345 0.0395103
240 1 11.231 9.45779 16.2751
241 2 1.15198 2.60297 11.9619
242 1 0.532488 3.10671 11.428
243 1 1.30986 1.75436 11.5486
244 2 15.1092 12.8858 7.99538
245 1 15.5398 12.4974 8.76009
246 1 14.4664 13.5335 8.28724
247 2 11.8578 1.74851 10.2553
248 1 12.3471 1.02838 9.86113
249 1 10.9199 1.58813 10.156
250 2 9.00395 10.5812 15.5783
251 1 9.19842 10.3292 16.4762
252 1 9.02073 9.81247 15.0083
253 2 17.3444 11.3686 8.48543
254 1 16.7748 11.8207 7.86337
255 1 17.2681 11.7785 9.35028
256 2 7.76364 5.73391 2.38048
257 1 7.84622 6.68536 2.32748
258 1 8.61282 5.35377 2.57803
259 2 13.2137 7.67903 6.9167
260 1 13.0876 7.55735 5.97343
261 1 13.7818 6.98434 7.25323
262 2 2.18728 15.4535 13.4109
263 1 2.9184 15.1106 12.9012
264 1 1.38241 14.9948 13.174
265 2 15.148 4.27366 16.7777
266 1 15.1632 4.28 0.238803
267 1 15.1167 5.16981 16.4547
268 2 14.4722 4.28605 7.00696
269 1 14.5581 3.76234 7.80636
270 1 15.2644 4.79588 6.87503
271 2 1.99139 13.6702 2.10823
272 1 2.24202 13.678 3.03371
273 1 2.13474 14.5433 1.74227
274 2 12.2716 14.9307 14.2835
275 1 12.6892 14.388 13.6091
276 1 12.4687 15.846 14.1093
277 2 3.76501 16.209 5.76498
278 1 4.3835 15.6222 5.3287
279 1 4.10773 16.4665 6.61879
280 2 13.5098 15.5843 1.83583
281 1 13.0514 15.8138 1.02309
282 1 13.2676 16.2061 2.52667
283 2 3.01609 10.027 10.1243
284 1 3.80089 10.5762 10.1944
285 1 2.28237 10.5513 9.79343
286 2 5.40671 9.24404 9.47934
287 1 5.30223 9.31198 10.4317
288 1 4.5736 9.00631 9.08154
289 2 6.06807 2.49359 16.8769
290 1 6.03816 1.52909 16.9077
291 1 6.68293 2.81387 0.0369862
292 2 7.96215 5.88582 9.0784
293 1 7.57501 5.53391 9.88561
294 1 7.61968 5.41218 8.3289
295 2 13.5678 0.675341 6.05276
296 1 13.2678 0.931804 5.17896
297 1 14.0973 17.3727 5.99157
298 2 5.52632 1.42625 11.4254
299 1 5.21385 1.61788 10.5305
300 1 5.85468 0.528561 11.4574
301 2 8.00848 5.01512 14.7006
302 1 8.00607 4.9952 15.666
303 1 8.25428 5.892 14.4053
304 2 10.9112 12.9588 5.56336
305 1 11.3761 12.1307 5.7352
306 1 10.0213 12.7795 5.28758
307 2 17.42 8.26405 8.13279
308 1 17.4727 9.0289 8.70551
309 1 16.5782 8.25729 7.67626
310 2 9.1316 12.8015 15.98
311 1 8.89925 11.97 16.4098
312 1 9.9286 13.1476 16.373
313 2 9.81583 10.368 4.12354
314 1 10.5292 10.5998 3.52729
315 1 9.13839 9.89017 3.64699
316 2 16.0268 17.246 2.49435
317 1 15.1203 16.9656 2.67165
318 1 16.2613 17.0287 1.59155
319 2 3.79496 2.74416 7.67451
320 1 3.29318 3.01486 6.902
321 1 4.50973 3.35101 7.83133
322 2 2.88127 7.14698 9.24515
323 1 3.1596 6.22873 9.23695
324 1 2.09216 7.22954 9.77281
325 2 5.04013 5.07712 6.67302
326 1 5.90643 5.45627 6.82129
327 1 4.39381 5.53283 7.20902
328 2 16.6796 14.1765 11.5246
329 1 16.8464 13.6764 10.7262
330 1 0.00558828 14.3466 11.9743
331 2 0.54582 15.1034 4.51496
332 1 0.598438 15.158 3.56345
333 1 0.789282 14.2255 4.80818
334 2 9.39191 11.7932 8.64645
335 1 8.89352 12.595 8.84675
336 1 9.85609 11.4968 9.42892
337 2 2.21835 12.1338 9.15644
338 1 2.93046 11.7222 8.67591
339 1 1.42486 12.1308 8.62126
340 2 14.2777 0.314678 8.77915
341 1 13.392 17.4479 8.72578
342 1 14.2506 1.23947 8.53897
343 2 7.34412 15.9241 15.2259
344 1 6.55395 16.2774 14.8209
345 1 7.10988 15.2803 15.8868
346 2 6.11984 0.301289 14.3987
347 1 5.46788 0.557321 15.0559
348 1 6.12967 0.935536 13.687
349 2 11.2432 15.0133 11.2199
350 1 11.2505 15.0177 12.1853
351 1 11.6493 14.2063 10.9051
352 2 7.45129 13.858 10.8948
353 1 7.63076 14.6608 10.4039
354 1 6.66763 13.438 10.5363
355 2 17.2397 3.17065 2.37433
356 1 17.4339 3.19755 3.31365
357 1 16.8525 2.32339 2.14795
358 2 7.59087 16.2949 3.41215
359 1 7.54814 16.2821 2.45395
360 1 8.49941 16.2905 3.68783
361 2 11.4686 11.1898 1.0359
362 1 11.453 10.841 1.92828
363 1 10.7235 11.7777 0.90177
364 2 17.2629 6.23445 3.99734
365 1 16.3684 6.54912 4.14773
366 1 17.2526 5.27939 3.92026
367 2 5.57736 8.91465 5.80829
368 1 6.34504 8.77152 5.25201
369 1 5.83118 8.89538 6.73077
370 2 9.08081 14.0785 4.44824
371 1 9.05619 14.6536 5.21917
372 1 8.66855 13.239 4.65695
373 2 14.9122 2.98687 2.8272
374 1 15.0096 3.06066 3.78086
375 1 15.5102 2.31434 2.49539
376 2 7.79921 0.178658 5.15776
377 1 7.55848 0.169709 6.08606
378 1 7.08093 17.3261 4.63349
379 2 15.9183 16.5753 4.86641
380 1 15.6709 16.5817 3.93784
381 1 16.0325 15.6784 5.16625
382 2 14.1614 17.4036 16.451
383 1 13.9574 17.4747 17.3848
384 1 14.5608 16.5584 16.2707
385 2 16.32 4.32985 9.43056
386 1 16.1157 5.06218 8.84604
387 1 17.115 3.89481 9.13517
388 2 4.91711 14.459 15.8559
389 1 4.67327 15.0661 15.1567
390 1 5.80116 14.661 16.1643
391 2 0.38078 9.05217 5.13611
392 1 1.19579 8.91394 4.6447
393 1 17.3499 8.25508 5.10625
394 2 2.10943 12.1927 13.0184
395 1 2.84849 12.3635 12.4341
396 1 2.36501 12.3915 13.9119
397 2 1.43718 6.93205 17.2088
398 1 1.51441 7.10716 0.647633
399 1 1.41846 5.98756 17.0615
400 2 0.665684 16.0184 0.358191
401 1 0.686595 15.6662 1.25802
402 1 0.667989 16.9731 0.387378
403 2 0.187798 11.9359 15.2877
404 1 0.164522 12.2087 14.3646
405 1 0.0515059 10.9917 15.3434
406 2 1.84663 2.85299 3.80459
407 1 2.78624 2.91781 3.64956
408 1 1.64644 2.0105 4.21443
409 2 0.763974 7.67436 12.9881
410 1 0.777338 7.6994 12.0254
411 1 1.65286 7.5332 13.3088
412 2 2.90381 4.34995 10.9076
413 1 2.80711 5.05572 10.2606
414 1 3.80877 4.03188 10.909
415 2 3.63729 13.1636 9.8221
416 1 3.63402 12.8885 10.7461
417 1 3.69711 14.1147 9.76613
418 2 10.3676 4.93074 13.4635
419 1 10.0439 5.36059 14.2532
420 1 10.4619 3.99614 13.6181
421 2 2.8507 13.9407 6.50288
422 1 3.04892 13.7453 5.58351
423 1 1.94608 13.703 6.68721
424 2 1.35937 1.66781 16.7857
425 1 0.46511 1.3529 16.9671
426 1 1.33521 2.34738 16.1225
427 2 4.1542 9.19522 16.8299
428 1 3.86103 9.39662 0.223131
429 1 4.46018 9.99091 16.4097
430 2 1.27286 9.5343 7.77164
431 1 0.533078 10.0492 7.44603
432 1 1.55197 9.87566 8.61959
433 2 9.46532 9.2475 7.68085
434 1 8.59949 8.85144 7.78597
435 1 9.80232 9.51123 8.52981
436 2 10.4019 1.01537 16.5903
437 1 9.82282 1.63355 17.0444
438 1 10.5284 1.29859 15.6876
439 2 17.3267 14.4447 14.8995
440 1 16.9029 13.5818 14.9159
441 1 16.6644 15.123 14.9053
442 2 10.1156 7.1452 4.37903
443 1 9.9851 7.84555 3.73983
444 1 9.82296 7.44244 5.23978
445 2 8.09124 10.2034 5.55282
446 1 8.03931 9.63268 4.78355
447 1 8.87651 9.99421 6.0564
448 2 1.48405 7.71879 2.4836
449 1 1.36264 7.70852 3.42958
450 1 2.06796 7.00388 2.2227
451 2 6.00797 13.8206 8.46125
452 1 5.79242 13.7653 7.52613
453 1 5.20793 13.8447 8.98057
454 2 4.52162 16.5959 1.71226
455 1 4.67562 16.3485 2.62486
456 1 4.05985 17.4303 1.6763
457 2 13.6475 8.95604 11.0402
458 1 13.6893 8.94248 11.9947
459 1 13.0902 8.24441 10.7333
460 2 15.6116 11.274 6.78254
461 1 16.2245 11.4129 6.05346
462 1 14.7403 11.1143 6.43512
463 2 11.4953 12.919 14.5659
464 1 11.3214 12.0426 14.9332
465 1 11.0575 13.0104 13.7237
466 2 9.55035 1.61736 6.25359
467 1 9.5856 2.52236 6.57502
468 1 9.17002 1.60282 5.37916
469 2 8.44776 7.7594 6.65069
470 1 8.0208 8.08885 5.85399
471 1 9.38703 7.92987 6.60158
472 2 16.959 7.72938 1.53078
473 1 17.0914 8.04548 2.42961